! TOUCHSTONE file generated by CST DESIGN STUDIO
! Date and time: Wed Sep 28 11:57:36 2016
! Project name: S:\Testsims_Andre\Power_Balance_Example\NEW\2ch_loops.cst
! Tree item: Tasks\SS_SPara\S-Parameters
# MHZ S MA R 50
297.2                   0.327552        -159.402         0.427832         68.1371         0.427832         68.1372          0.22879         174.584  
